                               Psi4 1.3.2 release

  ==> Input File <==

--------------------------------------------------------------------------
mol = psi4.core.Molecule.from_arrays(
elez=[6, 6, 1, 1, 1, 8, 1, 1, 6, 6, 1, 1, 1, 8, 1, 1, 6, 1, 1],
fragment_separators=[8, 16],
fix_com=True,
fix_orientation=True,
fix_symmetry='c1',
fragment_multiplicities=[2, 2, 1],
molecular_charge=0,
molecular_multiplicity=1,
geom=[
             2.51268 ,       -0.79503 ,       -0.22006 ,
             1.23732 ,        0.03963 ,       -0.27676 ,
             2.46159 ,       -1.62117 ,       -0.94759 ,
             2.64341 ,       -1.21642 ,        0.78902 ,
             3.39794 ,       -0.18468 ,       -0.46590 ,
             1.26614 ,        1.11169 ,        0.70005 ,
             2.10603 ,        1.58188 ,        0.59592 ,
             1.13110 ,        0.48209 ,       -1.28412 ,

            -1.26007 ,        0.07291 ,        0.27398 ,
            -2.53390 ,       -0.75742 ,        0.20501 ,
            -2.48461 ,       -1.59766 ,        0.91610 ,
            -2.65872 ,       -1.16154 ,       -0.81233 ,
            -3.41092 ,       -0.13922 ,        0.44665 ,
            -1.38660 ,        1.11180 ,       -0.71748 ,
            -1.17281 ,        0.53753 ,        1.27129 ,
            -0.70002 ,        1.76332 ,       -0.50799 ,

            -0.01090 ,       -0.78649 ,        0.02607 ,
             0.17071 ,       -1.41225 ,        0.91863 ,
            -0.19077 ,       -1.46135 ,       -0.82966 ])
activate(mol)

# => Standard Options <= #

set {
basis jun-cc-pVDZ
scf_type disk_df
guess sad
freeze_core true
fisapt_do_plot true
}

energy('fisapt0')

Eelst = psi4.variable("SAPT ELST ENERGY")
Eexch = psi4.variable("SAPT EXCH ENERGY")
Eind  = psi4.variable("SAPT IND ENERGY")
Edisp = psi4.variable("SAPT DISP ENERGY")
ET    = psi4.variable("SAPT0 TOTAL ENERGY")
--------------------------------------------------------------------------

    Molecular point group: c1

    Geometry (in Angstrom), charge = 0, multiplicity = 1:

       Center              X                  Y                   Z               Mass
    ------------   -----------------  -----------------  -----------------  -----------------
         C            2.512680000000    -0.795030000000    -0.220060000000    12.000000000000
         C            1.237320000000     0.039630000000    -0.276760000000    12.000000000000
         H            2.461590000000    -1.621170000000    -0.947590000000     1.007825032230
         H            2.643410000000    -1.216420000000     0.789020000000     1.007825032230
         H            3.397940000000    -0.184680000000    -0.465900000000     1.007825032230
         O            1.266140000000     1.111690000000     0.700050000000    15.994914619570
         H            2.106030000000     1.581880000000     0.595920000000     1.007825032230
         H            1.131100000000     0.482090000000    -1.284120000000     1.007825032230
         C           -1.260070000000     0.072910000000     0.273980000000    12.000000000000
         C           -2.533900000000    -0.757420000000     0.205010000000    12.000000000000
         H           -2.484610000000    -1.597660000000     0.916100000000     1.007825032230
         H           -2.658720000000    -1.161540000000    -0.812330000000     1.007825032230
         H           -3.410920000000    -0.139220000000     0.446650000000     1.007825032230
         O           -1.386600000000     1.111800000000    -0.717480000000    15.994914619570
         H           -1.172810000000     0.537530000000     1.271290000000     1.007825032230
         H           -0.700020000000     1.763320000000    -0.507990000000     1.007825032230
         C           -0.010900000000    -0.786490000000     0.026070000000    12.000000000000
         H            0.170710000000    -1.412250000000     0.918630000000     1.007825032230
         H           -0.190770000000    -1.461350000000    -0.829660000000     1.007825032230

  Charge       = 0
  Multiplicity = 1
  Basis Set: JUN-CC-PVDZ
    Blend: JUN-CC-PVDZ
  Basis Set: (JUN-CC-PVDZ AUX)
    Blend: JUN-CC-PVDZ-JKFIT

    Orbital Energies [Eh]
    ---------------------

    Doubly Occupied:

       1A    -20.575181     2A    -20.550680     3A    -11.293394
       4A    -11.276970     5A    -11.238066     6A    -11.228911
       7A    -11.217801     8A     -1.369216     9A     -1.344052
      10A     -1.067659    11A     -1.012211    12A     -0.936435
      13A     -0.825459    14A     -0.777478    15A     -0.709913
      16A     -0.679280    17A     -0.645815    18A     -0.622746
      19A     -0.578131    20A     -0.559837    21A     -0.546190
      22A     -0.537963    23A     -0.531668    24A     -0.519442
      25A     -0.513188    26A     -0.487131    27A     -0.459618
      28A     -0.447198    29A     -0.423742

  @DF-RHF Final Energy:  -346.08352301858088

   => Energetics <=

    Nuclear Repulsion Energy =            336.7165352516151984
    One-Electron Energy =               -1139.6493646443282159
    Two-Electron Energy =                 456.8493063741321976
    Total Energy =                       -346.0835230185808769

  Dipole Moment: [D]
     X:     2.7061      Y:    -0.7826      Z:     0.2147     Total:     2.8251

  Basis Set: (JUN-CC-PVDZ AUX)
    Blend: JUN-CC-PVDZ-JKFIT
  Basis Set: JUN-CC-PVDZ
    Blend: JUN-CC-PVDZ

    SAPT Results
  --------------------------------------------------------------------------------------------------------
    Electrostatics                 14.96407764 [mEh]       9.39010049 [kcal/mol]      39.28818043 [kJ/mol]
      Elst10,r                     14.96407764 [mEh]       9.39010049 [kcal/mol]      39.28818043 [kJ/mol]

    Exchange                       10.69472255 [mEh]       6.71103972 [kcal/mol]      28.07899018 [kJ/mol]
      Exch10                       10.69472255 [mEh]       6.71103972 [kcal/mol]      28.07899018 [kJ/mol]
      Exch10(S^2)                  10.68108480 [mEh]       6.70248190 [kcal/mol]      28.04318428 [kJ/mol]

    Induction                      -5.28294439 [mEh]      -3.31509765 [kcal/mol]     -13.87036858 [kJ/mol]
      Ind20,r                     -10.83769345 [mEh]      -6.80075531 [kcal/mol]     -28.45436022 [kJ/mol]
      Exch-Ind20,r                  6.32062524 [mEh]       3.96625222 [kcal/mol]      16.59479927 [kJ/mol]
      delta HF,r (2)               -0.76587618 [mEh]      -0.48059456 [kcal/mol]      -2.01080762 [kJ/mol]
      Induction (A<-B)             -2.46492046 [mEh]      -1.54676094 [kcal/mol]      -6.47164779 [kJ/mol]
      Induction (B<-A)             -2.81802392 [mEh]      -1.76833671 [kcal/mol]      -7.39872079 [kJ/mol]

    Dispersion                     -4.83559874 [mEh]      -3.03438402 [kcal/mol]     -12.69586276 [kJ/mol]
      Disp20                       -5.47112726 [mEh]      -3.43318419 [kcal/mol]     -14.36444264 [kJ/mol]
      Exch-Disp20                   0.63552851 [mEh]       0.39880016 [kcal/mol]       1.66857988 [kJ/mol]

  Total HF                         20.37585580 [mEh]      12.78604255 [kcal/mol]      53.49680203 [kJ/mol]
  Total SAPT0                      15.54025706 [mEh]       9.75165853 [kcal/mol]      40.80093928 [kJ/mol]

  --------------------------------------------------------------------------------------------------------

*** Psi4 exiting successfully. Buy a developer a beer!
