                               Psi4 1.3.2 release

  ==> Input File <==

--------------------------------------------------------------------------
mol = psi4.core.Molecule.from_arrays(
elez=[6, 6, 1, 1, 1, 8, 1, 1, 6, 6, 1, 1, 1, 8, 1, 1, 6, 1, 1],
fragment_separators=[8, 16],
fix_com=True,
fix_orientation=True,
fix_symmetry='c1',
fragment_multiplicities=[2, 2, 1],
molecular_charge=0,
molecular_multiplicity=1,
geom=[
             0.39987 ,        2.94222 ,       -0.26535 ,
             0.05893 ,        2.05436 ,       -0.50962 ,

             0.48122 ,        0.30277 ,       -0.77763 ,
             0.26106 ,       -0.50005 ,        1.28451 ,

             2.33048 ,       -1.00269 ,        0.03771 ,
             1.89725 ,        0.31533 ,       -0.59009 ,
             2.28232 ,        1.50669 ,        0.29709 ,
             1.82204 ,        2.84608 ,       -0.29432 ,
             2.37905 ,        4.02099 ,        0.49639 ,
             3.41246 ,       -1.03030 ,        0.19825 ,
             2.05362 ,       -1.84372 ,       -0.60709 ,
             1.82714 ,       -1.16382 ,        0.99734 ,
             2.36243 ,        0.42333 ,       -1.57636 ,
             3.36962 ,        1.51414 ,        0.43813 ,
             1.81251 ,        1.38060 ,        1.28140 ,
             2.14344 ,        2.92967 ,       -1.33843 ,
             3.47320 ,        4.02400 ,        0.48819 ,
             2.03535 ,        3.99216 ,        1.53635 ,
             2.02481 ,        4.96785 ,        0.07455 ])
activate(mol)

# => Standard Options <= #

set {
basis jun-cc-pVDZ
scf_type disk_df
guess sad
freeze_core true
fisapt_do_plot true
}

energy('fisapt0')
--------------------------------------------------------------------------

    Molecular point group: c1

    Geometry (in Angstrom), charge = 0, multiplicity = 1:

       Center              X                  Y                   Z               Mass
    ------------   -----------------  -----------------  -----------------  -----------------
         C            0.399870000000     2.942220000000    -0.265350000000    12.000000000000
         C            0.058930000000     2.054360000000    -0.509620000000    12.000000000000
         H            0.481220000000     0.302770000000    -0.777630000000     1.007825032230
         H            0.261060000000    -0.500050000000     1.284510000000     1.007825032230
         H            2.330480000000    -1.002690000000     0.037710000000     1.007825032230
         O            1.897250000000     0.315330000000    -0.590090000000    15.994914619570
         H            2.282320000000     1.506690000000     0.297090000000     1.007825032230
         H            1.822040000000     2.846080000000    -0.294320000000     1.007825032230
         C            2.379050000000     4.020990000000     0.496390000000    12.000000000000
         C            3.412460000000    -1.030300000000     0.198250000000    12.000000000000
         H            2.053620000000    -1.843720000000    -0.607090000000     1.007825032230
         H            1.827140000000    -1.163820000000     0.997340000000     1.007825032230
         H            2.362430000000     0.423330000000    -1.576360000000     1.007825032230
         O            3.369620000000     1.514140000000     0.438130000000    15.994914619570
         H            1.812510000000     1.380600000000     1.281400000000     1.007825032230
         H            2.143440000000     2.929670000000    -1.338430000000     1.007825032230
         C            3.473200000000     4.024000000000     0.488190000000    12.000000000000
         H            2.035350000000     3.992160000000     1.536350000000     1.007825032230
         H            2.024810000000     4.967850000000     0.074550000000     1.007825032230

  Charge       = 0
  Multiplicity = 1
  Basis Set: JUN-CC-PVDZ
    Blend: JUN-CC-PVDZ
  Basis Set: (JUN-CC-PVDZ AUX)
    Blend: JUN-CC-PVDZ-JKFIT

    Orbital Energies [Eh]
    ---------------------

    Doubly Occupied:

       1A    -20.606779     2A    -20.601160     3A    -11.384854
       4A    -11.284776     5A    -11.270749     6A    -11.246860
       7A    -11.226546     8A     -1.344040     9A     -1.257221
      10A     -1.192463    11A     -1.162827    12A     -0.947653
      13A     -0.786859    14A     -0.729032    15A     -0.696541
      16A     -0.672448    17A     -0.654677    18A     -0.594585
      19A     -0.551821    20A     -0.532604    21A     -0.513898
      22A     -0.491068    23A     -0.474382    24A     -0.469543
      25A     -0.460708    26A     -0.440288    27A     -0.401514
      28A     -0.382897    29A     -0.312536

  @DF-RHF Final Energy:  -344.17662013607082

   => Energetics <=

    Nuclear Repulsion Energy =            306.7372242827605646
    One-Electron Energy =               -1076.4450345434599967
    Two-Electron Energy =                 425.5311901246286652
    Total Energy =                       -344.1766201360708237

  Dipole Moment: [D]
     X:    -0.8069      Y:     3.7554      Z:    -2.8726     Total:     4.7964

  Basis Set: (JUN-CC-PVDZ AUX)
    Blend: JUN-CC-PVDZ-JKFIT
  Basis Set: JUN-CC-PVDZ
    Blend: JUN-CC-PVDZ

    SAPT Results
  --------------------------------------------------------------------------------------------------------
    Electrostatics              32926.87555636 [mEh]   20661.92635351 [kcal/mol]   86449.49986308 [kJ/mol]
      Elst10,r                  32926.87555636 [mEh]   20661.92635351 [kcal/mol]   86449.49986308 [kJ/mol]

    Exchange                    10248.41270190 [mEh]    6430.97606162 [kcal/mol]   26907.20384184 [kJ/mol]
      Exch10                    10248.41270190 [mEh]    6430.97606162 [kcal/mol]   26907.20384184 [kJ/mol]
      Exch10(S^2)                2059.85787104 [mEh]    1292.58032871 [kcal/mol]    5408.15609533 [kJ/mol]

    Induction                   -1125.96901087 [mEh]    -706.55622150 [kcal/mol]   -2956.23123075 [kJ/mol]
      Ind20,r                   -2961.88539934 [mEh]   -1858.61114833 [kcal/mol]   -7776.42904461 [kJ/mol]
      Exch-Ind20,r              -1698.33890222 [mEh]   -1065.72375083 [kcal/mol]   -4458.98817346 [kJ/mol]
      delta HF,r (2)             3534.25529069 [mEh]    2217.77867766 [kcal/mol]    9279.18598732 [kJ/mol]
      Induction (A<-B)           -840.10970579 [mEh]    -527.17679939 [kcal/mol]   -2205.70772866 [kJ/mol]
      Induction (B<-A)           -285.85930508 [mEh]    -179.37942211 [kcal/mol]    -750.52350209 [kJ/mol]

    Dispersion                     -5.27099720 [mEh]      -3.30760068 [kcal/mol]     -13.83900125 [kJ/mol]
      Disp20                       -6.35675006 [mEh]      -3.98892088 [kcal/mol]     -16.68964497 [kJ/mol]
      Exch-Disp20                   1.08575285 [mEh]       0.68132020 [kcal/mol]       2.85064373 [kJ/mol]

  Total HF                      42049.31924739 [mEh]   26386.34619363 [kcal/mol]  110400.47247416 [kJ/mol]
  Total SAPT0                   42044.04825019 [mEh]   26383.03859295 [kcal/mol]  110386.63347291 [kJ/mol]

  --------------------------------------------------------------------------------------------------------

*** Psi4 exiting successfully. Buy a developer a beer!
